 ----------------------------------------------------
    OOO  PPPP  EEEEE N   N M   M PPPP
   O   O P   P E     NN  N MM MM P   P
   O   O PPPP  EEEEE N N N M M M PPPP   -- VERSION
   O   O P     E     N  NN M   M P
    OOO  P     EEEEE N   N M   M P
 ----------------------------------------------------
 running  128 mpi-ranks, with    1 threads/rank
 distrk:  each k-point on  128 cores,    1 groups
 distr:  one band on   16 cores,    8 groups
 vasp.6.2.1 16May21 (build Dec 21 2021 13:06:20) complex                        
  
 POSCAR found type information on POSCAR C H 
 POSCAR found :  2 types and     196 ions
 scaLAPACK will be used
 LDA part: xc-table for Pade appr. of Perdew
 found WAVECAR, reading the header
 POSCAR, INCAR and KPOINTS ok, starting setup
 FFT: planning ...
 reading WAVECAR
 the WAVECAR file was read successfully
 initial charge from wavefunction
 entering main loop
       N       E                     dE             d eps       ncg     rms          rms(c)
DAV:   1    -0.150772405407E+04   -0.15077E+04   -0.32091E-10  7536   0.216E-05    0.184E-05
DAV:   2    -0.150772405407E+04   -0.48749E-09   -0.11622E-11  8160   0.121E-05    0.189E-05
DAV:   3    -0.150772405407E+04    0.27649E-09    0.66415E-11  8568   0.768E-06    0.187E-05
DAV:   4    -0.150772405407E+04   -0.87311E-09    0.85523E-11  7832   0.407E-06    0.197E-05
DAV:   5    -0.150772405407E+04    0.10405E-08    0.72640E-11  7264   0.473E-06    0.213E-05
DAV:   6    -0.150772405407E+04    0.16007E-09    0.75885E-11  7520   0.521E-06
   1 F= -.15189163E+04 E0= -.15188956E+04  d E =-.151892E+04  mag=     0.0000
 curvature:   0.00 expect dE= 0.000E+00 dE for cont linesearch  0.000E+00
 trial: gam= 0.00000 g(F)=  0.461E-02 g(S)=  0.000E+00 ort = 0.000E+00 (trialstep = 0.100E+01)
 search vector abs. value=  0.461E-02
 bond charge predicted
       N       E                     dE             d eps       ncg     rms          rms(c)
DAV:   1    -0.150772289326E+04    0.11608E-02   -0.44182E-01 10208   0.963E-01    0.171E-01
DAV:   2    -0.150772334561E+04   -0.45235E-03   -0.95208E-03 10856   0.144E-01    0.121E-01
DAV:   3    -0.150772336574E+04   -0.20124E-04   -0.17465E-03 10672   0.825E-02    0.110E-01
DAV:   4    -0.150772317579E+04    0.18995E-03   -0.19210E-03 10464   0.722E-02    0.708E-02
DAV:   5    -0.150772319708E+04   -0.21293E-04   -0.14360E-03 10704   0.598E-02    0.640E-02
DAV:   6    -0.150772308556E+04    0.11152E-03   -0.42540E-04 10384   0.373E-02    0.183E-02
DAV:   7    -0.150772309475E+04   -0.91859E-05   -0.56638E-05 10528   0.135E-02    0.159E-02
DAV:   8    -0.150772309183E+04    0.29195E-05   -0.14722E-05 10728   0.708E-03    0.802E-03
DAV:   9    -0.150772309243E+04   -0.59894E-06   -0.46893E-06 10760   0.373E-03    0.435E-03
DAV:  10    -0.150772309268E+04   -0.25961E-06   -0.14522E-06 10728   0.217E-03    0.241E-03
DAV:  11    -0.150772309309E+04   -0.40525E-06   -0.47304E-07 10816   0.118E-03    0.100E-03
DAV:  12    -0.150772309351E+04   -0.42391E-06   -0.15206E-07 11072   0.611E-04    0.496E-04
DAV:  13    -0.150772309386E+04   -0.34569E-06   -0.36255E-08  9648   0.299E-04    0.330E-04
DAV:  14    -0.150772309439E+04   -0.52651E-06   -0.13158E-08  7760   0.160E-04    0.166E-04
DAV:  15    -0.150772309492E+04   -0.53555E-06   -0.94684E-09  8144   0.104E-04    0.993E-05
DAV:  16    -0.150772309525E+04   -0.32993E-06   -0.33012E-09  8040   0.664E-05    0.780E-05
DAV:  17    -0.150772309572E+04   -0.46587E-06   -0.68240E-09  7816   0.718E-05    0.746E-05
DAV:  18    -0.150772309596E+04   -0.24553E-06   -0.34462E-09  8032   0.579E-05    0.842E-05
DAV:  19    -0.150772309594E+04    0.26630E-07   -0.57767E-10  7368   0.300E-05    0.849E-05
DAV:  20    -0.150772309594E+04   -0.77707E-08   -0.79672E-11  8144   0.138E-05
   2 F= -.15189154E+04 E0= -.15188946E+04  d E =0.938508E-03  mag=     0.0000
 trial-energy change:    0.000939  1 .order    0.000941   -0.004609    0.006492
 step:   0.4152(harm=  0.4152)  dis= 0.00105  next Energy= -1518.917303 (dE=-0.957E-03)
 bond charge predicted
       N       E                     dE             d eps       ncg     rms          rms(c)
DAV:   1    -0.150772493263E+04   -0.18367E-02   -0.15110E-01 10192   0.563E-01    0.999E-02
DAV:   2    -0.150772508451E+04   -0.15187E-03   -0.32437E-03 10776   0.843E-02    0.704E-02
DAV:   3    -0.150772508929E+04   -0.47855E-05   -0.56797E-04 10616   0.480E-02    0.638E-02
DAV:   4    -0.150772502357E+04    0.65718E-04   -0.61175E-04 10464   0.423E-02    0.408E-02
DAV:   5    -0.150772503483E+04   -0.11259E-04   -0.48743E-04 10592   0.350E-02    0.377E-02
DAV:   6    -0.150772499599E+04    0.38839E-04   -0.15621E-04 10384   0.223E-02    0.109E-02
DAV:   7    -0.150772499998E+04   -0.39850E-05   -0.19646E-05 10424   0.799E-03    0.940E-03
DAV:   8    -0.150772499898E+04    0.10037E-05   -0.51133E-06 10720   0.413E-03    0.473E-03
DAV:   9    -0.150772499915E+04   -0.17030E-06   -0.16608E-06 11072   0.219E-03    0.264E-03
DAV:  10    -0.150772499914E+04    0.92696E-08   -0.50930E-07 10808   0.130E-03    0.141E-03
DAV:  11    -0.150772499915E+04   -0.11874E-07   -0.16929E-07 11016   0.692E-04    0.620E-04
DAV:  12    -0.150772499916E+04   -0.10521E-07   -0.57639E-08 11304   0.370E-04    0.396E-04
DAV:  13    -0.150772499913E+04    0.31410E-07   -0.17142E-08  8520   0.191E-04    0.378E-04
DAV:  14    -0.150772499907E+04    0.57684E-07   -0.68300E-09  8096   0.110E-04    0.405E-04
DAV:  15    -0.150772499917E+04   -0.10031E-06   -0.48447E-09  7592   0.961E-05    0.388E-04
DAV:  16    -0.150772499933E+04   -0.15798E-06   -0.10525E-08  8400   0.120E-04    0.308E-04
DAV:  17    -0.150772499954E+04   -0.21476E-06   -0.50398E-08 10888   0.259E-04    0.135E-04
DAV:  18    -0.150772499977E+04   -0.22674E-06   -0.12696E-08  9152   0.120E-04    0.851E-05
DAV:  19    -0.150772499994E+04   -0.17445E-06   -0.17999E-09  7704   0.538E-05    0.582E-05
DAV:  20    -0.150772500019E+04   -0.24733E-06   -0.37420E-09  7888   0.538E-05    0.503E-05
DAV:  21    -0.150772500044E+04   -0.25098E-06   -0.44120E-09  7896   0.542E-05    0.419E-05
DAV:  22    -0.150772500055E+04   -0.10334E-06   -0.16698E-09  8184   0.369E-05    0.395E-05
DAV:  23    -0.150772500061E+04   -0.59015E-07   -0.99215E-10  7768   0.297E-05    0.369E-05
DAV:  24    -0.150772500064E+04   -0.31265E-07   -0.67898E-10  8072   0.251E-05    0.376E-05
DAV:  25    -0.150772500063E+04    0.57626E-08   -0.91638E-11  7416   0.136E-05
   3 F= -.15189173E+04 E0= -.15188965E+04  d E =-.958848E-03  mag=     0.0000
 curvature:  -0.21 expect dE=-0.451E-03 dE for cont linesearch -0.633E-09
 trial: gam= 0.47258 g(F)=  0.217E-02 g(S)=  0.000E+00 ort =-0.375E-05 (trialstep = 0.883E+00)
 search vector abs. value=  0.320E-02
 bond charge predicted
       N       E                     dE             d eps       ncg     rms          rms(c)
DAV:   1    -0.150772489986E+04    0.10077E-03   -0.20692E-01  9968   0.666E-01    0.104E-01
DAV:   2    -0.150772510836E+04   -0.20850E-03   -0.37291E-03 10880   0.900E-02    0.758E-02
DAV:   3    -0.150772508591E+04    0.22449E-04   -0.34349E-04 10688   0.442E-02    0.589E-02
DAV:   4    -0.150772504556E+04    0.40349E-04   -0.20543E-04 10480   0.351E-02    0.351E-02
DAV:   5    -0.150772505724E+04   -0.11677E-04   -0.26396E-04 10480   0.281E-02    0.323E-02
DAV:   6    -0.150772503096E+04    0.26281E-04   -0.20266E-04 10472   0.220E-02    0.141E-02
DAV:   7    -0.150772503174E+04   -0.77753E-06   -0.32087E-05 10560   0.980E-03    0.980E-03
DAV:   8    -0.150772503044E+04    0.13020E-05   -0.57573E-06 10496   0.455E-03    0.507E-03
DAV:   9    -0.150772503076E+04   -0.32399E-06   -0.20507E-06 10856   0.219E-03    0.212E-03
DAV:  10    -0.150772503098E+04   -0.21952E-06   -0.40422E-07 11240   0.110E-03    0.116E-03
DAV:  11    -0.150772503116E+04   -0.17841E-06   -0.10446E-07 11040   0.625E-04    0.577E-04
DAV:  12    -0.150772503135E+04   -0.19140E-06   -0.37379E-08 10104   0.321E-04    0.264E-04
DAV:  13    -0.150772503151E+04   -0.16335E-06   -0.10125E-08  8032   0.157E-04    0.178E-04
DAV:  14    -0.150772503166E+04   -0.14150E-06   -0.44072E-09  7960   0.104E-04    0.106E-04
DAV:  15    -0.150772503181E+04   -0.15512E-06   -0.34256E-09  7872   0.703E-05    0.775E-05
DAV:  16    -0.150772503190E+04   -0.85980E-07   -0.15379E-09  8056   0.447E-05    0.765E-05
DAV:  17    -0.150772503196E+04   -0.62508E-07   -0.87445E-10  7664   0.341E-05    0.794E-05
DAV:  18    -0.150772503196E+04   -0.17099E-08   -0.16861E-10  8424   0.188E-05
   4 F= -.15189175E+04 E0= -.15188967E+04  d E =-.237872E-03  mag=     0.0000
 trial-energy change:   -0.000238  1 .order   -0.000235   -0.001918    0.001449
 step:   0.5031(harm=  0.5031)  dis= 0.00097  next Energy= -1518.917852 (dE=-0.547E-03)
 bond charge predicted
       N       E                     dE             d eps       ncg     rms          rms(c)
DAV:   1    -0.150772540555E+04   -0.37359E-03   -0.38297E-02 10032   0.286E-01    0.447E-02
DAV:   2    -0.150772544383E+04   -0.38277E-04   -0.68941E-04 10824   0.387E-02    0.326E-02
DAV:   3    -0.150772543975E+04    0.40779E-05   -0.63026E-05 10632   0.191E-02    0.254E-02
DAV:   4    -0.150772543239E+04    0.73620E-05   -0.37887E-05 10368   0.151E-02    0.151E-02
DAV:   5    -0.150772543485E+04   -0.24621E-05   -0.47813E-05 10432   0.121E-02    0.138E-02
DAV:   6    -0.150772543003E+04    0.48250E-05   -0.37023E-05 10408   0.941E-03    0.612E-03
DAV:   7    -0.150772543051E+04   -0.48658E-06   -0.59545E-06 10504   0.424E-03    0.422E-03
DAV:   8    -0.150772543028E+04    0.23193E-06   -0.10640E-06 10536   0.195E-03    0.218E-03
DAV:   9    -0.150772543029E+04   -0.94660E-08   -0.38712E-07 10856   0.946E-04    0.939E-04
DAV:  10    -0.150772543018E+04    0.11150E-06   -0.82961E-08 11256   0.485E-04    0.586E-04
DAV:  11    -0.150772543001E+04    0.16982E-06   -0.29468E-08  9656   0.293E-04    0.444E-04
DAV:  12    -0.150772542976E+04    0.24760E-06   -0.19905E-08  9232   0.190E-04    0.465E-04
DAV:  13    -0.150772542985E+04   -0.94355E-07   -0.36162E-09  7264   0.869E-05    0.463E-04
DAV:  14    -0.150772543000E+04   -0.14142E-06   -0.24448E-09  7696   0.671E-05    0.422E-04
DAV:  15    -0.150772543041E+04   -0.41470E-06   -0.11216E-07 11064   0.392E-04    0.234E-04
DAV:  16    -0.150772543048E+04   -0.65091E-07   -0.33145E-08 10048   0.180E-04    0.187E-04
DAV:  17    -0.150772543047E+04    0.10055E-07   -0.54923E-09  7640   0.873E-05    0.108E-04
DAV:  18    -0.150772543044E+04    0.29970E-07   -0.19044E-09  7872   0.562E-05    0.903E-05
DAV:  19    -0.150772543042E+04    0.14843E-07   -0.13054E-09  7480   0.397E-05    0.848E-05
DAV:  20    -0.150772543042E+04    0.18263E-08   -0.45200E-10  7680   0.260E-05
   5 F= -.15189179E+04 E0= -.15188971E+04  d E =-.549363E-03  mag=     0.0000
 curvature:  -0.37 expect dE=-0.443E-03 dE for cont linesearch -0.150E-07
 trial: gam= 0.54346 g(F)=  0.120E-02 g(S)=  0.000E+00 ort = 0.114E-04 (trialstep = 0.807E+00)
 search vector abs. value=  0.215E-02
 bond charge predicted
       N       E                     dE             d eps       ncg     rms          rms(c)
DAV:   1    -0.150772590854E+04   -0.47812E-03   -0.11018E-01  9920   0.482E-01    0.687E-02
DAV:   2    -0.150772600545E+04   -0.96906E-04   -0.16052E-03 10808   0.547E-02    0.470E-02
DAV:   3    -0.150772600430E+04    0.11482E-05   -0.15707E-04 10632   0.208E-02    0.347E-02
DAV:   4    -0.150772603142E+04   -0.27123E-04   -0.39267E-04 11216   0.306E-02    0.409E-02
DAV:   5    -0.150772598390E+04    0.47526E-04   -0.22000E-04 11064   0.238E-02    0.111E-02
DAV:   6    -0.150772598912E+04   -0.52184E-05   -0.29120E-05 10472   0.105E-02    0.782E-03
DAV:   7    -0.150772598799E+04    0.11283E-05   -0.65938E-06 10504   0.499E-03    0.463E-03
DAV:   8    -0.150772598808E+04   -0.88061E-07   -0.10288E-06 10680   0.183E-03    0.327E-03
DAV:   9    -0.150772598812E+04   -0.42899E-07   -0.57302E-07 10840   0.126E-03    0.174E-03
DAV:  10    -0.150772598825E+04   -0.12812E-06   -0.20923E-07 10688   0.953E-04    0.113E-03
DAV:  11    -0.150772598828E+04   -0.32735E-07   -0.54749E-08 10552   0.511E-04    0.344E-04
DAV:  12    -0.150772598838E+04   -0.10221E-06   -0.17216E-08  8272   0.197E-04    0.245E-04
DAV:  13    -0.150772598846E+04   -0.75837E-07   -0.66341E-09  7760   0.125E-04    0.157E-04
DAV:  14    -0.150772598852E+04   -0.63483E-07   -0.32213E-09  7880   0.739E-05    0.125E-04
DAV:  15    -0.150772598858E+04   -0.58644E-07   -0.27822E-09  7864   0.581E-05    0.117E-04
DAV:  16    -0.150772598861E+04   -0.33702E-07   -0.23578E-09  7872   0.491E-05    0.118E-04
DAV:  17    -0.150772598862E+04   -0.58862E-08   -0.10322E-09  7776   0.354E-05
   6 F= -.15189182E+04 E0= -.15188976E+04  d E =-.383669E-03  mag=     0.0000
 trial-energy change:   -0.000384  1 .order   -0.000385   -0.000969    0.000200
 step:   0.6688(harm=  0.6688)  dis= 0.00154  next Energy= -1518.918256 (dE=-0.402E-03)
 bond charge predicted
       N       E                     dE             d eps       ncg     rms          rms(c)
DAV:   1    -0.150772597311E+04    0.15503E-04   -0.32317E-03 10240   0.825E-02    0.118E-02
DAV:   2    -0.150772597574E+04   -0.26326E-05   -0.47072E-05 10696   0.937E-03    0.806E-03
DAV:   3    -0.150772597567E+04    0.70504E-07   -0.46348E-06 10656   0.356E-03    0.595E-03
DAV:   4    -0.150772597640E+04   -0.72448E-06   -0.11519E-05 10968   0.532E-03    0.698E-03
DAV:   5    -0.150772597471E+04    0.16838E-05   -0.64287E-06 10880   0.413E-03    0.191E-03
DAV:   6    -0.150772597504E+04   -0.32672E-06   -0.86939E-07 10472   0.181E-03    0.135E-03
DAV:   7    -0.150772597502E+04    0.16655E-07   -0.19499E-07 10584   0.856E-04    0.809E-04
DAV:   8    -0.150772597501E+04    0.15687E-07   -0.28253E-08  8504   0.312E-04    0.582E-04
DAV:   9    -0.150772597496E+04    0.48887E-07   -0.22553E-08  8280   0.244E-04    0.328E-04
DAV:  10    -0.150772597489E+04    0.65585E-07   -0.90593E-09  7664   0.184E-04    0.232E-04
DAV:  11    -0.150772597484E+04    0.56985E-07   -0.32386E-09  7496   0.105E-04    0.157E-04
DAV:  12    -0.150772597476E+04    0.74106E-07   -0.26085E-09  7488   0.614E-05    0.159E-04
DAV:  13    -0.150772597474E+04    0.18452E-07   -0.60645E-10  8080   0.332E-05    0.161E-04
DAV:  14    -0.150772597479E+04   -0.45897E-07   -0.63659E-10  7152   0.323E-05    0.178E-04
DAV:  15    -0.150772597479E+04   -0.17026E-08   -0.29662E-11  7824   0.139E-05
   7 F= -.15189183E+04 E0= -.15188976E+04  d E =-.400133E-03  mag=     0.0000
 curvature:  -0.60 expect dE=-0.579E-03 dE for cont linesearch -0.511E-08
 trial: gam= 0.81410 g(F)=  0.967E-03 g(S)=  0.000E+00 ort =-0.429E-05 (trialstep = 0.703E+00)
 search vector abs. value=  0.239E-02
 bond charge predicted
       N       E                     dE             d eps       ncg     rms          rms(c)
DAV:   1    -0.150772626452E+04   -0.28973E-03   -0.95107E-02  9920   0.438E-01    0.651E-02
DAV:   2    -0.150772634499E+04   -0.80474E-04   -0.13022E-03 10768   0.502E-02    0.460E-02
DAV:   3    -0.150772634327E+04    0.17264E-05   -0.10703E-04 10704   0.203E-02    0.351E-02
DAV:   4    -0.150772634204E+04    0.12244E-05   -0.14164E-04 10624   0.237E-02    0.277E-02
DAV:   5    -0.150772634014E+04    0.19000E-05   -0.20670E-04 10488   0.229E-02    0.245E-02
DAV:   6    -0.150772632411E+04    0.16027E-04   -0.78547E-05 10360   0.144E-02    0.614E-03
DAV:   7    -0.150772632597E+04   -0.18542E-05   -0.77970E-06 10496   0.528E-03    0.517E-03
DAV:   8    -0.150772632570E+04    0.26505E-06   -0.18525E-06 10616   0.261E-03    0.270E-03
DAV:   9    -0.150772632581E+04   -0.10886E-06   -0.64151E-07 11264   0.126E-03    0.135E-03
DAV:  10    -0.150772632582E+04   -0.53187E-08   -0.19780E-07 11024   0.731E-04    0.777E-04
DAV:  11    -0.150772632574E+04    0.75081E-07   -0.57514E-08  9784   0.419E-04    0.433E-04
DAV:  12    -0.150772632562E+04    0.12531E-06   -0.26121E-08  9232   0.224E-04    0.340E-04
DAV:  13    -0.150772632552E+04    0.10076E-06   -0.90528E-09  8232   0.124E-04    0.361E-04
DAV:  14    -0.150772632558E+04   -0.67404E-07   -0.30056E-09  7400   0.752E-05    0.360E-04
DAV:  15    -0.150772632565E+04   -0.63825E-07   -0.16351E-09  7792   0.531E-05    0.340E-04
DAV:  16    -0.150772632583E+04   -0.18199E-06   -0.16359E-08  8912   0.153E-04    0.270E-04
DAV:  17    -0.150772632577E+04    0.60638E-07   -0.20672E-08  9576   0.162E-04    0.215E-04
DAV:  18    -0.150772632556E+04    0.20603E-06   -0.54995E-09  7608   0.841E-05    0.210E-04
DAV:  19    -0.150772632525E+04    0.31420E-06   -0.83812E-09  7896   0.851E-05    0.212E-04
DAV:  20    -0.150772632508E+04    0.16492E-06   -0.49892E-09  8064   0.673E-05    0.220E-04
DAV:  21    -0.150772632531E+04   -0.22233E-06   -0.22080E-08  7728   0.131E-04    0.248E-04
DAV:  22    -0.150772632529E+04    0.12195E-07   -0.17837E-09  7184   0.457E-05    0.232E-04
DAV:  23    -0.150772632512E+04    0.17197E-06   -0.28684E-09  7296   0.472E-05    0.271E-04
DAV:  24    -0.150772632502E+04    0.10480E-06   -0.31208E-08  8240   0.144E-04    0.323E-04
DAV:  25    -0.150772632539E+04   -0.37711E-06   -0.12716E-07 10984   0.295E-04    0.379E-04
DAV:  26    -0.150772632594E+04   -0.54696E-06   -0.86580E-08 11488   0.242E-04    0.489E-04
DAV:  27    -0.150772632611E+04   -0.16847E-06   -0.19705E-08  8560   0.130E-04    0.518E-04
DAV:  28    -0.150772632613E+04   -0.16727E-07   -0.32149E-09  8608   0.668E-05    0.537E-04
DAV:  29    -0.150772632611E+04    0.16844E-07   -0.23973E-08  7648   0.138E-04    0.660E-04
DAV:  30    -0.150772632602E+04    0.91452E-07   -0.44574E-08  9752   0.182E-04    0.662E-04
DAV:  31    -0.150772632619E+04   -0.17518E-06   -0.17861E-07 11328   0.343E-04    0.524E-04
DAV:  32    -0.150772632678E+04   -0.58399E-06   -0.20169E-07 12520   0.358E-04    0.221E-04
DAV:  33    -0.150772632753E+04   -0.75817E-06   -0.72772E-07 12080   0.704E-04    0.294E-04
DAV:  34    -0.150772632803E+04   -0.49405E-06   -0.34500E-07 11936   0.515E-04    0.169E-04
DAV:  35    -0.150772632830E+04   -0.27152E-06   -0.17578E-08  8672   0.154E-04    0.948E-05
DAV:  36    -0.150772632844E+04   -0.14322E-06   -0.70258E-08 10520   0.239E-04    0.325E-04
DAV:  37    -0.150772632867E+04   -0.22639E-06   -0.31718E-09  7856   0.893E-05    0.123E-04
DAV:  38    -0.150772632872E+04   -0.53566E-07   -0.13682E-08  8080   0.118E-04    0.106E-04
DAV:  39    -0.150772632878E+04   -0.54191E-07   -0.86471E-09  7520   0.815E-05    0.269E-05
DAV:  40    -0.150772632879E+04   -0.10485E-07   -0.25980E-09  8248   0.525E-05    0.190E-05
DAV:  41    -0.150772632879E+04   -0.46712E-08   -0.52834E-10  7544   0.293E-05
   8 F= -.15189186E+04 E0= -.15188979E+04  d E =-.350883E-03  mag=     0.0000
 trial-energy change:   -0.000351  1 .order   -0.000348   -0.000677   -0.000019
 step:   0.7231(harm=  0.7236)  dis= 0.00159  next Energy= -1518.918606 (dE=-0.351E-03)
 bond charge predicted
       N       E                     dE             d eps       ncg     rms          rms(c)
DAV:   1    -0.150772632915E+04   -0.35834E-06   -0.77080E-05 11000   0.125E-02    0.186E-03
DAV:   2    -0.150772632924E+04   -0.93285E-07   -0.10555E-06 10816   0.143E-03    0.131E-03
DAV:   3    -0.150772632925E+04   -0.10696E-07   -0.86396E-08 10512   0.577E-04    0.998E-04
DAV:   4    -0.150772632926E+04   -0.58862E-08   -0.11290E-07  8272   0.674E-04    0.789E-04
DAV:   5    -0.150772632926E+04   -0.15498E-08   -0.16613E-07  7096   0.662E-04    0.696E-04
DAV:   6    -0.150772632925E+04    0.11947E-07   -0.63806E-08  7024   0.418E-04    0.171E-04
DAV:   7    -0.150772632926E+04   -0.98589E-08   -0.66969E-09  7200   0.158E-04
   9 F= -.15189186E+04 E0= -.15188979E+04  d E =-.351219E-03  mag=     0.0000
 curvature:  -0.90 expect dE=-0.902E-03 dE for cont linesearch -0.467E-09
 trial: gam= 1.02973 g(F)=  0.101E-02 g(S)=  0.000E+00 ort = 0.112E-05 (trialstep = 0.477E+00)
 search vector abs. value=  0.354E-02
 bond charge predicted
       N       E                     dE             d eps       ncg     rms          rms(c)
DAV:   1    -0.150772653339E+04   -0.20415E-03   -0.59016E-02  9920   0.344E-01    0.515E-02
DAV:   2    -0.150772658339E+04   -0.49997E-04   -0.77461E-04 10752   0.386E-02    0.382E-02
DAV:   3    -0.150772658812E+04   -0.47357E-05   -0.74714E-05 10688   0.223E-02    0.324E-02
DAV:   4    -0.150772657180E+04    0.16321E-04   -0.71186E-05 10576   0.192E-02    0.173E-02
DAV:   5    -0.150772658422E+04   -0.12420E-04   -0.12850E-04 11160   0.182E-02    0.227E-02
DAV:   6    -0.150772656633E+04    0.17897E-04   -0.65156E-05 10624   0.128E-02    0.372E-03
DAV:   7    -0.150772656917E+04   -0.28420E-05   -0.50341E-06 10632   0.333E-03    0.361E-03
DAV:   8    -0.150772656921E+04   -0.42615E-07   -0.74623E-07 10816   0.142E-03    0.195E-03
DAV:   9    -0.150772656933E+04   -0.11507E-06   -0.23379E-07 11056   0.798E-04    0.110E-03
DAV:  10    -0.150772656939E+04   -0.61766E-07   -0.85574E-08 11280   0.568E-04    0.606E-04
DAV:  11    -0.150772656944E+04   -0.52016E-07   -0.26070E-08  8384   0.300E-04    0.224E-04
DAV:  12    -0.150772656949E+04   -0.53384E-07   -0.81976E-09  7904   0.141E-04    0.127E-04
DAV:  13    -0.150772656954E+04   -0.43474E-07   -0.26363E-09  7832   0.812E-05    0.812E-05
DAV:  14    -0.150772656959E+04   -0.55319E-07   -0.12411E-09  7800   0.505E-05    0.483E-05
DAV:  15    -0.150772656964E+04   -0.51034E-07   -0.75775E-10  7744   0.346E-05    0.365E-05
DAV:  16    -0.150772656967E+04   -0.27205E-07   -0.33616E-10  7960   0.238E-05    0.367E-05
DAV:  17    -0.150772656968E+04   -0.93278E-08   -0.86734E-11  7976   0.154E-05
  10 F= -.15189189E+04 E0= -.15188982E+04  d E =-.320281E-03  mag=     0.0000
 trial-energy change:   -0.000320  1 .order   -0.000321   -0.000480   -0.000161
 step:   0.7169(harm=  0.7169)  dis= 0.00213  next Energy= -1518.918967 (dE=-0.361E-03)
 bond charge predicted
       N       E                     dE             d eps       ncg     rms          rms(c)
DAV:   1    -0.150772656085E+04    0.88188E-05   -0.14975E-02  9984   0.173E-01    0.260E-02
DAV:   2    -0.150772657363E+04   -0.12782E-04   -0.19650E-04 10672   0.194E-02    0.192E-02
DAV:   3    -0.150772657463E+04   -0.99245E-06   -0.18908E-05 10608   0.112E-02    0.163E-02
DAV:   4    -0.150772657066E+04    0.39631E-05   -0.17958E-05 10536   0.967E-03    0.870E-03
DAV:   5    -0.150772657398E+04   -0.33223E-05   -0.32544E-05 11088   0.914E-03    0.114E-02
DAV:   6    -0.150772656914E+04    0.48486E-05   -0.16571E-05 10584   0.649E-03    0.187E-03
DAV:   7    -0.150772657025E+04   -0.11184E-05   -0.12691E-06 10544   0.167E-03    0.182E-03
DAV:   8    -0.150772657028E+04   -0.22432E-07   -0.18886E-07 10824   0.715E-04    0.991E-04
DAV:   9    -0.150772657031E+04   -0.31010E-07   -0.60774E-08 11136   0.405E-04    0.570E-04
DAV:  10    -0.150772657031E+04   -0.16444E-08   -0.21631E-08  8080   0.290E-04
  11 F= -.15189190E+04 E0= -.15188983E+04  d E =-.360798E-03  mag=     0.0000
 curvature:  -1.26 expect dE=-0.145E-02 dE for cont linesearch -0.192E-08
 trial: gam= 1.15259 g(F)=  0.115E-02 g(S)=  0.000E+00 ort =-0.233E-05 (trialstep = 0.318E+00)
 search vector abs. value=  0.584E-02
 bond charge predicted
       N       E                     dE             d eps       ncg     rms          rms(c)
DAV:   1    -0.150772682531E+04   -0.25501E-03   -0.42737E-02  9920   0.294E-01    0.419E-02
DAV:   2    -0.150772686051E+04   -0.35193E-04   -0.51768E-04 10752   0.306E-02    0.311E-02
DAV:   3    -0.150772686115E+04   -0.63782E-06   -0.32029E-05 10616   0.157E-02    0.240E-02
DAV:   4    -0.150772685638E+04    0.47650E-05   -0.30104E-05 11136   0.154E-02    0.149E-02
DAV:   5    -0.150772685405E+04    0.23270E-05   -0.33353E-05 10672   0.104E-02    0.987E-03
DAV:   6    -0.150772685148E+04    0.25710E-05   -0.18176E-05 10544   0.662E-03    0.349E-03
DAV:   7    -0.150772685188E+04   -0.39381E-06   -0.20569E-06 10640   0.227E-03    0.221E-03
DAV:   8    -0.150772685146E+04    0.41384E-06   -0.41439E-07 11560   0.108E-03    0.155E-03
DAV:   9    -0.150772685077E+04    0.68855E-06   -0.14496E-07 11072   0.616E-04    0.109E-03
DAV:  10    -0.150772684962E+04    0.11501E-05   -0.11265E-07 11472   0.476E-04    0.112E-03
DAV:  11    -0.150772684892E+04    0.70716E-06   -0.46510E-08 10984   0.263E-04    0.121E-03
DAV:  12    -0.150772685087E+04   -0.19496E-05   -0.17175E-07 10896   0.513E-04    0.102E-03
DAV:  13    -0.150772685267E+04   -0.18036E-05   -0.38254E-07 11864   0.672E-04    0.499E-04
DAV:  14    -0.150772685314E+04   -0.46934E-06   -0.13404E-07 12544   0.411E-04    0.290E-04
DAV:  15    -0.150772685340E+04   -0.25847E-06   -0.13292E-08  8760   0.159E-04    0.178E-04
DAV:  16    -0.150772685352E+04   -0.11974E-06   -0.31642E-09  7776   0.819E-05    0.142E-04
DAV:  17    -0.150772685357E+04   -0.55741E-07   -0.27983E-09  8216   0.693E-05    0.676E-05
DAV:  18    -0.150772685362E+04   -0.43932E-07   -0.10402E-09  7920   0.384E-05    0.419E-05
DAV:  19    -0.150772685370E+04   -0.83630E-07   -0.77694E-10  7904   0.283E-05    0.338E-05
DAV:  20    -0.150772685378E+04   -0.80217E-07   -0.11526E-09  8088   0.312E-05    0.325E-05
DAV:  21    -0.150772685381E+04   -0.30210E-07   -0.45937E-10  8160   0.213E-05    0.322E-05
DAV:  22    -0.150772685383E+04   -0.19209E-07   -0.44014E-10  7736   0.207E-05    0.280E-05
DAV:  23    -0.150772685384E+04   -0.12711E-07   -0.30658E-10  7912   0.176E-05    0.285E-05
DAV:  24    -0.150772685384E+04    0.14916E-08    0.51739E-12  7904   0.928E-06
  12 F= -.15189193E+04 E0= -.15188986E+04  d E =-.285151E-03  mag=     0.0000
 trial-energy change:   -0.000285  1 .order   -0.000283   -0.000364   -0.000201
 step:   0.6448(harm=  0.7094)  dis= 0.00248  next Energy= -1518.919358 (dE=-0.391E-03)
 writing wavefunctions
